{
    "dependencies": {
        "1": [
            "2",
            "19"
        ],
        "2": [
            "3",
            "18"
        ],
        "3": [
            "4",
            "17"
        ],
        "4": [
            "5",
            "16"
        ],
        "5": [
            "6",
            "15"
        ],
        "6": [
            "7",
            "12"
        ],
        "7": [
            "11",
            "9"
        ],
        "8": [],
        "9": [
            "10",
            "11"
        ],
        "10": [],
        "11": [],
        "12": [
            "13"
        ],
        "13": [],
        "14": [],
        "15": [],
        "16": [],
        "17": [],
        "18": [],
        "19": [
            "20"
        ],
        "20": [
            "21"
        ],
        "21": []
    },
    "steps": [
        {
            "step": "1",
            "reactants": [
                {
                    "smiles": "O[C@H]1C=C2C3NCC4=CC5=C(OCO5)C=C4C3[C@@H]2OC1C(C)=O",
                    "reactant_metadata": {
                        "name": "",
                        "chemical_formula": "C17H17NO5",
                        "mass": 315.110672644
                    }
                },
                {
                    "smiles": "CI",
                    "reactant_metadata": {
                        "name": "",
                        "chemical_formula": "CH3I",
                        "mass": 141.927948096
                    }
                }
            ],
            "reagents": [
                {
                    "smiles": "CC(=O)OC(C)=O",
                    "reagent_metadata": {
                        "name": "",
                        "chemical_formula": "C4H6O3",
                        "mass": 102.031694052
                    }
                },
                {
                    "smiles": "C1CCOC1",
                    "reagent_metadata": {
                        "name": "",
                        "chemical_formula": "C4H8O",
                        "mass": 72.057514876
                    }
                }
            ],
            "products": [
                {
                    "smiles": "O[C@H]1C=C2C3N(C[C@H]2OC)CC4=CC5=C(OCO5)C=C4C3[C@@H]1OC(C)=O",
                    "product_metadata": {
                        "name": "",
                        "chemical_formula": "C19H21NO6",
                        "mass": 359.13688739199995
                    }
                }
            ],
            "conditions": {
                "temperature": "Room temperature (approximately 20-25\u00b0C)",
                "pressure": "Atmospheric pressure",
                "solvent": "The reaction likely does not require an additional solvent as the reactants and reagents can act as solvents themselves.",
                "time": "The reaction time depends on the specific conditions and scale, but it typically ranges from a few minutes to a few hours for this type of N-methylation reaction."
            },
            "reactionmetrics": [
                {
                    "scalabilityindex": "3",
                    "confidenceestimate": 0.7,
                    "closestliterature": "Eschweiler-Clarke reaction: N-methylation of a secondary amine using formaldehyde and formic acid or another reducing agent."
                }
            ]
        },
        {
            "step": "2",
            "reactants": [
                {
                    "smiles": "O[C@H]1C=C2C3NCC4=CC(O)=C(O)C=C4C3[C@@H]2OC1",
                    "reactant_metadata": {
                        "name": "",
                        "chemical_formula": "C14H15NO4",
                        "mass": 261.10010796
                    }
                },
                {
                    "smiles": "IC[I]",
                    "reactant_metadata": {
                        "name": "",
                        "chemical_formula": "CH2I2",
                        "mass": 267.824596064
                    }
                }
            ],
            "reagents": [
                {
                    "smiles": "CC(=O)OC(C)=O",
                    "reagent_metadata": {
                        "name": "",
                        "chemical_formula": "C4H6O3",
                        "mass": 102.031694052
                    }
                },
                {
                    "smiles": "[H+]",
                    "reagent_metadata": {
                        "name": "",
                        "chemical_formula": "H+",
                        "mass": 1.00727645209
                    }
                }
            ],
            "products": [
                {
                    "smiles": "O[C@H]1C=C2C3NCC4=CC5=C(OCO5)C=C4C3[C@@H]2OC1C(C)=O",
                    "product_metadata": {
                        "name": "",
                        "chemical_formula": "C17H17NO5",
                        "mass": 315.110672644
                    }
                }
            ],
            "conditions": {
                "temperature": "Room temperature (20-25\u00b0C)",
                "pressure": "Atmospheric pressure",
                "solvent": "Acetic anhydride (Ac2O) as solvent and reagent",
                "time": "1-2 hours"
            },
            "reactionmetrics": [
                {
                    "scalabilityindex": "9",
                    "confidenceestimate": 0.8,
                    "closestliterature": "Acetylation of a catechol moiety to form an acetonide using acetic anhydride and acid catalyst"
                }
            ]
        },
        {
            "step": "3",
            "reactants": [
                {
                    "smiles": "O=CCC1=CC=C2C3NCC4=CC=CC=C4C3C2=C1",
                    "reactant_metadata": {
                        "name": "",
                        "chemical_formula": "C17H15NO",
                        "mass": 249.1153641
                    }
                },
                {
                    "smiles": "O=Cc1ccc(O)c(O)c1",
                    "reactant_metadata": {
                        "name": "",
                        "chemical_formula": "C7H6O3",
                        "mass": 138.031694052
                    }
                }
            ],
            "reagents": [
                {
                    "smiles": "O",
                    "reagent_metadata": {
                        "name": "",
                        "chemical_formula": "H2O",
                        "mass": 18.010564684
                    }
                },
                {
                    "smiles": "[H+]",
                    "reagent_metadata": {
                        "name": "",
                        "chemical_formula": "H+",
                        "mass": 1.00727645209
                    }
                }
            ],
            "products": [
                {
                    "smiles": "O[C@H]1C=C2C3NCC4=CC(O)=C(O)C=C4C3[C@@H]2OC1",
                    "product_metadata": {
                        "name": "",
                        "chemical_formula": "C14H15NO4",
                        "mass": 261.10010796
                    }
                }
            ],
            "conditions": {
                "temperature": "Room temperature (20-25\u00b0C)",
                "pressure": "Atmospheric pressure",
                "solvent": "Protic solvent (e.g., ethanol, methanol)",
                "time": "Several hours to overnight, depending on the specific substrates and catalyst used"
            },
            "reactionmetrics": [
                {
                    "scalabilityindex": "8",
                    "confidenceestimate": 0.8,
                    "closestliterature": "Pictet-Spengler reaction"
                }
            ]
        },
        {
            "step": "4",
            "reactants": [
                {
                    "smiles": "O=CCC1=CC=C2C(=O)C3NCC4=CC=CC=C4C3C2=C1",
                    "reactant_metadata": {
                        "name": "",
                        "chemical_formula": "C18H15NO2",
                        "mass": 277.11027872000005
                    }
                },
                {
                    "smiles": "N",
                    "reactant_metadata": {
                        "name": "",
                        "chemical_formula": "H3N",
                        "mass": 17.026549096
                    }
                }
            ],
            "reagents": [],
            "products": [
                {
                    "smiles": "O=CCC1=CC=C2C3NCC4=CC=CC=C4C3C2=C1",
                    "product_metadata": {
                        "name": "",
                        "chemical_formula": "C17H15NO",
                        "mass": 249.1153641
                    }
                }
            ],
            "conditions": {
                "temperature": "Room temperature (20-25\u00b0C)",
                "pressure": "Atmospheric pressure",
                "solvent": "The reaction likely does not require a solvent as it appears to be a direct hydrogenation using gaseous hydrogen.",
                "time": "The reaction time would depend on the specific conditions and catalyst used, but likely on the order of hours."
            },
            "reactionmetrics": [
                {
                    "scalabilityindex": "8",
                    "confidenceestimate": 0.65,
                    "closestliterature": "Catalytic hydrogenation of an \u03b1,\u03b2-unsaturated ketone to the corresponding saturated ketone using hydrogen gas (H2) and a transition metal catalyst, such as palladium on carbon (Pd/C)."
                }
            ]
        },
        {
            "step": "5",
            "reactants": [
                {
                    "smiles": "O=CCC1=CC=C2C(=O)C3CCNCC4=CC=CC=C4C3C2=C1",
                    "reactant_metadata": {
                        "name": "",
                        "chemical_formula": "C20H19NO2",
                        "mass": 305.14157884800005
                    }
                },
                {
                    "smiles": "O=CC=O",
                    "reactant_metadata": {
                        "name": "",
                        "chemical_formula": "C2H2O2",
                        "mass": 58.005479304000005
                    }
                }
            ],
            "reagents": [
                {
                    "smiles": "O",
                    "reagent_metadata": {
                        "name": "",
                        "chemical_formula": "H2O",
                        "mass": 18.010564684
                    }
                }
            ],
            "products": [
                {
                    "smiles": "O=CCC1=CC=C2C(=O)C3NCC4=CC=CC=C4C3C2=C1",
                    "product_metadata": {
                        "name": "",
                        "chemical_formula": "C18H15NO2",
                        "mass": 277.11027872000005
                    }
                }
            ],
            "conditions": {
                "temperature": "Room temperature (20-25\u00b0C)",
                "pressure": "Atmospheric pressure",
                "solvent": "Acetic acid",
                "time": "2-4 hours"
            },
            "reactionmetrics": [
                {
                    "scalabilityindex": "8",
                    "confidenceestimate": 0.6,
                    "closestliterature": "Pictet-Spengler reaction"
                }
            ]
        },
        {
            "step": "6",
            "reactants": [
                {
                    "smiles": "C1=CC=C2C=CC=C2C1",
                    "reactant_metadata": {
                        "name": "",
                        "chemical_formula": "C9H8",
                        "mass": 116.062600256
                    }
                },
                {
                    "smiles": "O=C=CC",
                    "reactant_metadata": {
                        "name": "",
                        "chemical_formula": "C3H4O",
                        "mass": 56.026214748
                    }
                }
            ],
            "reagents": [
                {
                    "smiles": "[Al]",
                    "reagent_metadata": {
                        "name": "",
                        "chemical_formula": "Al",
                        "mass": 26.98153863
                    }
                },
                {
                    "smiles": "[H+]",
                    "reagent_metadata": {
                        "name": "",
                        "chemical_formula": "H+",
                        "mass": 1.00727645209
                    }
                }
            ],
            "products": [
                {
                    "smiles": "O=CCC1=CC=C2C(=O)C3CCNCC4=CC=CC=C4C3C2=C1",
                    "product_metadata": {
                        "name": "",
                        "chemical_formula": "C20H19NO2",
                        "mass": 305.14157884800005
                    }
                }
            ],
            "conditions": {
                "temperature": "0\u00b0C to room temperature",
                "pressure": "Atmospheric pressure",
                "solvent": "Dichloromethane (CH2Cl2) or 1,2-dichloroethane",
                "time": "2-4 hours"
            },
            "reactionmetrics": [
                {
                    "scalabilityindex": "8",
                    "confidenceestimate": 0.6,
                    "closestliterature": "Nazarov cyclization of divinyl ketones with indole derivatives, catalyzed by Lewis acids such as aluminum chloride (AlCl3)"
                }
            ]
        },
        {
            "step": "7",
            "reactants": [
                {
                    "smiles": "Oc1cccc2ccccc12",
                    "reactant_metadata": {
                        "name": "",
                        "chemical_formula": "C10H8O",
                        "mass": 144.057514876
                    }
                },
                {
                    "smiles": "OC1=CC=CC=C2C=CC=CC12",
                    "reactant_metadata": {
                        "name": "",
                        "chemical_formula": "C11H10O",
                        "mass": 158.07316494
                    }
                }
            ],
            "reagents": [],
            "products": [
                {
                    "smiles": "C1=CC=C2C=CC=C2C1",
                    "product_metadata": {
                        "name": "",
                        "chemical_formula": "C9H8",
                        "mass": 116.062600256
                    }
                }
            ],
            "conditions": {
                "temperature": "200-300 \u00b0C",
                "pressure": "Atmospheric pressure",
                "solvent": "No solvent needed",
                "time": "Several hours"
            },
            "reactionmetrics": [
                {
                    "scalabilityindex": "9",
                    "confidenceestimate": 0.8,
                    "closestliterature": "Dehydration of 1-naphthol and 2-naphthol to form naphthalene"
                }
            ]
        },
        {
            "step": "8",
            "reactants": [
                {
                    "smiles": "COc1cccc2ccccc12",
                    "reactant_metadata": {
                        "name": "",
                        "chemical_formula": "C11H10O",
                        "mass": 158.07316494
                    }
                }
            ],
            "reagents": [
                {
                    "smiles": "[H+]",
                    "reagent_metadata": {
                        "name": "",
                        "chemical_formula": "H+",
                        "mass": 1.00727645209
                    }
                }
            ],
            "products": [
                {
                    "smiles": "Oc1cccc2ccccc12",
                    "product_metadata": {
                        "name": "",
                        "chemical_formula": "C10H8O",
                        "mass": 144.057514876
                    }
                }
            ],
            "conditions": {
                "temperature": "Reflux",
                "pressure": "Atmospheric pressure",
                "solvent": "Hydrobromic acid (48% in H2O)",
                "time": "2-4 hours"
            },
            "reactionmetrics": [
                {
                    "scalabilityindex": "8",
                    "confidenceestimate": 0.85,
                    "closestliterature": "Demethylation of 2-methoxynaphthalene to 2-naphthol using hydrobromic acid"
                }
            ]
        },
        {
            "step": "9",
            "reactants": [
                {
                    "smiles": "Brc1cccc2ccccc12",
                    "reactant_metadata": {
                        "name": "",
                        "chemical_formula": "C10H7Br",
                        "mass": 205.973112324
                    }
                },
                {
                    "smiles": "Oc1cccc2ccccc12",
                    "reactant_metadata": {
                        "name": "",
                        "chemical_formula": "C10H8O",
                        "mass": 144.057514876
                    }
                }
            ],
            "reagents": [
                {
                    "smiles": "[Cu]",
                    "reagent_metadata": {
                        "name": "",
                        "chemical_formula": "Cu",
                        "mass": 62.9295975
                    }
                },
                {
                    "smiles": "[K+].[OH-]",
                    "reagent_metadata": {
                        "name": "",
                        "chemical_formula": "HKO",
                        "mass": 55.966446332000004
                    }
                }
            ],
            "products": [
                {
                    "smiles": "OC1=CC=CC=C2C=CC=CC12",
                    "product_metadata": {
                        "name": "",
                        "chemical_formula": "C11H10O",
                        "mass": 158.07316494
                    }
                }
            ],
            "conditions": {
                "temperature": "100-150 \u00b0C",
                "pressure": "1 atm",
                "solvent": "High boiling point aprotic solvent such as DMSO, DMF, or NMP",
                "time": "12-24 hours"
            },
            "reactionmetrics": [
                {
                    "scalabilityindex": "8",
                    "confidenceestimate": 0.8,
                    "closestliterature": "Ullmann ether synthesis"
                }
            ]
        },
        {
            "step": "10",
            "reactants": [
                {
                    "smiles": "c1ccc2ccccc2c1",
                    "reactant_metadata": {
                        "name": "",
                        "chemical_formula": "C10H8",
                        "mass": 128.062600256
                    }
                },
                {
                    "smiles": "O=C1CCC(=O)N1Br",
                    "reactant_metadata": {
                        "name": "",
                        "chemical_formula": "C4H4BrNO2",
                        "mass": 176.942540468
                    }
                }
            ],
            "reagents": [
                {
                    "smiles": "[Cu]",
                    "reagent_metadata": {
                        "name": "",
                        "chemical_formula": "Cu",
                        "mass": 62.9295975
                    }
                },
                {
                    "smiles": "[Cu+]",
                    "reagent_metadata": {
                        "name": "",
                        "chemical_formula": "Cu+",
                        "mass": 62.92904892009
                    }
                }
            ],
            "products": [
                {
                    "smiles": "Brc1cccc2ccccc12",
                    "product_metadata": {
                        "name": "",
                        "chemical_formula": "C10H7Br",
                        "mass": 205.973112324
                    }
                }
            ],
            "conditions": {
                "temperature": "100-150 \u00b0C",
                "pressure": "Not applicable. This reaction is typically carried out at atmospheric pressure.",
                "solvent": "Not applicable. This reaction is usually performed under solvent-free conditions.",
                "time": "2-4 hours"
            },
            "reactionmetrics": [
                {
                    "scalabilityindex": "8",
                    "confidenceestimate": 0.98,
                    "closestliterature": "Ullmann coupling reaction"
                }
            ]
        },
        {
            "step": "11",
            "reactants": [
                {
                    "smiles": "COc1cccc2ccccc12",
                    "reactant_metadata": {
                        "name": "",
                        "chemical_formula": "C11H10O",
                        "mass": 158.07316494
                    }
                }
            ],
            "reagents": [
                {
                    "smiles": "[H+]",
                    "reagent_metadata": {
                        "name": "",
                        "chemical_formula": "H+",
                        "mass": 1.00727645209
                    }
                }
            ],
            "products": [
                {
                    "smiles": "Oc1cccc2ccccc12",
                    "product_metadata": {
                        "name": "",
                        "chemical_formula": "C10H8O",
                        "mass": 144.057514876
                    }
                }
            ],
            "conditions": {
                "temperature": "Reflux",
                "pressure": "Atmospheric pressure",
                "solvent": "Hydrobromic acid (48% in H2O)",
                "time": "2-4 hours"
            },
            "reactionmetrics": [
                {
                    "scalabilityindex": "8",
                    "confidenceestimate": 0.85,
                    "closestliterature": "Demethylation of 2-methoxynaphthalene to 2-naphthol using hydrobromic acid"
                }
            ]
        },
        {
            "step": "12",
            "reactants": [
                {
                    "smiles": "CC(=O)OC(C)=O",
                    "reactant_metadata": {
                        "name": "",
                        "chemical_formula": "C4H6O3",
                        "mass": 102.031694052
                    }
                }
            ],
            "reagents": [
                {
                    "smiles": "CC(=O)Cl",
                    "reagent_metadata": {
                        "name": "",
                        "chemical_formula": "C2H3ClO",
                        "mass": 77.987242396
                    }
                },
                {
                    "smiles": "[Mg+].[Br-]",
                    "reagent_metadata": {
                        "name": "",
                        "chemical_formula": "BrMg",
                        "mass": 102.90337880000001
                    }
                }
            ],
            "products": [
                {
                    "smiles": "O=C=CC",
                    "product_metadata": {
                        "name": "",
                        "chemical_formula": "C3H4O",
                        "mass": 56.026214748
                    }
                }
            ],
            "conditions": {
                "temperature": "0\u00b0C to room temperature",
                "pressure": "atmospheric pressure",
                "solvent": "anhydrous diethyl ether",
                "time": "1-2 hours"
            },
            "reactionmetrics": [
                {
                    "scalabilityindex": "9",
                    "confidenceestimate": 0.8,
                    "closestliterature": "Grignard addition of methylmagnesium bromide to methyl acetate, followed by dehydration of the resulting tertiary alcohol"
                }
            ]
        },
        {
            "step": "13",
            "reactants": [
                {
                    "smiles": "CCC(=O)OC(C)=O",
                    "reactant_metadata": {
                        "name": "",
                        "chemical_formula": "C5H8O3",
                        "mass": 116.047344116
                    }
                }
            ],
            "reagents": [
                {
                    "smiles": "CC(=O)O",
                    "reagent_metadata": {
                        "name": "",
                        "chemical_formula": "C2H4O2",
                        "mass": 60.021129368000004
                    }
                }
            ],
            "products": [
                {
                    "smiles": "CC(=O)OC(C)=O",
                    "product_metadata": {
                        "name": "",
                        "chemical_formula": "C4H6O3",
                        "mass": 102.031694052
                    }
                }
            ],
            "conditions": {
                "temperature": "Reflux (approximately 80-100 \u00b0C)",
                "pressure": "Atmospheric pressure",
                "solvent": "No additional solvent required, as acetic acid acts as both a reactant and solvent",
                "time": "1-2 hours"
            },
            "reactionmetrics": [
                {
                    "scalabilityindex": "9",
                    "confidenceestimate": 0.99,
                    "closestliterature": "Fischer esterification"
                }
            ]
        },
        {
            "step": "14",
            "reactants": [
                {
                    "smiles": "O=S(Cl)Cl",
                    "reactant_metadata": {
                        "name": "",
                        "chemical_formula": "Cl2OS",
                        "mass": 117.90469098
                    }
                }
            ],
            "reagents": [
                {
                    "smiles": "CC(=O)O",
                    "reagent_metadata": {
                        "name": "",
                        "chemical_formula": "C2H4O2",
                        "mass": 60.021129368000004
                    }
                },
                {
                    "smiles": "C",
                    "reagent_metadata": {
                        "name": "",
                        "chemical_formula": "CH4",
                        "mass": 16.031300127999998
                    }
                }
            ],
            "products": [
                {
                    "smiles": "CC(=O)Cl",
                    "product_metadata": {
                        "name": "",
                        "chemical_formula": "C2H3ClO",
                        "mass": 77.987242396
                    }
                }
            ],
            "conditions": {
                "temperature": "0 \u00b0C to room temperature",
                "pressure": "Ambient pressure (1 atm)",
                "solvent": "Not applicable; reaction likely occurs without solvent",
                "time": "Reaction is likely rapid, completing within minutes to a few hours"
            },
            "reactionmetrics": [
                {
                    "scalabilityindex": "9",
                    "confidenceestimate": 0.84,
                    "closestliterature": "Thionyl chloride (SOCl2) reacts with carboxylic acids (RCOOH) to form acyl chlorides (RCOCl). This is a common method for converting carboxylic acids to the more reactive acyl chloride derivatives."
                }
            ]
        },
        {
            "step": "15",
            "reactants": [
                {
                    "smiles": "O=CCO",
                    "reactant_metadata": {
                        "name": "",
                        "chemical_formula": "C2H4O2",
                        "mass": 60.021129368000004
                    }
                }
            ],
            "reagents": [
                {
                    "smiles": "[O-][Cr+3]([O-])([O-])=O",
                    "reagent_metadata": {
                        "name": "",
                        "chemical_formula": "CrO4",
                        "mass": 115.92016598000002
                    }
                },
                {
                    "smiles": "[H+]",
                    "reagent_metadata": {
                        "name": "",
                        "chemical_formula": "H+",
                        "mass": 1.00727645209
                    }
                }
            ],
            "products": [
                {
                    "smiles": "O=CC=O",
                    "product_metadata": {
                        "name": "",
                        "chemical_formula": "C2H2O2",
                        "mass": 58.005479304000005
                    }
                }
            ],
            "conditions": {
                "temperature": "Heat",
                "pressure": "Not applicable. This oxidation reaction does not require any special pressure conditions.",
                "solvent": "Acidic aqueous solution",
                "time": "Minutes to hours, depending on the scale of the reaction"
            },
            "reactionmetrics": [
                {
                    "scalabilityindex": "9",
                    "confidenceestimate": 0.91,
                    "closestliterature": "Jones oxidation of a primary alcohol to a carboxylic acid"
                }
            ]
        },
        {
            "step": "16",
            "reactants": [],
            "reagents": [
                {
                    "smiles": "C=O",
                    "reagent_metadata": {
                        "name": "",
                        "chemical_formula": "CH2O",
                        "mass": 30.010564684
                    }
                },
                {
                    "smiles": "C=C",
                    "reagent_metadata": {
                        "name": "",
                        "chemical_formula": "C2H4",
                        "mass": 28.031300127999998
                    }
                }
            ],
            "products": [
                {
                    "smiles": "N",
                    "product_metadata": {
                        "name": "",
                        "chemical_formula": "H3N",
                        "mass": 17.026549096
                    }
                }
            ],
            "conditions": "",
            "reactionmetrics": [
                {
                    "scalabilityindex": "8",
                    "confidenceestimate": 0.8,
                    "closestliterature": ""
                }
            ]
        },
        {
            "step": "17",
            "reactants": [
                {
                    "smiles": "COc1ccc(C=O)cc1OC",
                    "reactant_metadata": {
                        "name": "",
                        "chemical_formula": "C9H10O3",
                        "mass": 166.06299418
                    }
                }
            ],
            "reagents": [
                {
                    "smiles": "[Br][Br]",
                    "reagent_metadata": {
                        "name": "",
                        "chemical_formula": "Br2",
                        "mass": 157.8366742
                    }
                },
                {
                    "smiles": "CCO",
                    "reagent_metadata": {
                        "name": "",
                        "chemical_formula": "C2H6O",
                        "mass": 46.041864812
                    }
                }
            ],
            "products": [
                {
                    "smiles": "O=Cc1ccc(O)c(O)c1",
                    "product_metadata": {
                        "name": "",
                        "chemical_formula": "C7H6O3",
                        "mass": 138.031694052
                    }
                }
            ],
            "conditions": {
                "temperature": "Reflux",
                "pressure": "Ambient pressure",
                "solvent": "Ethanol (CCO)",
                "time": "1-3 hours"
            },
            "reactionmetrics": [
                {
                    "scalabilityindex": "8",
                    "confidenceestimate": 0.9,
                    "closestliterature": "Demethylation of aryl methyl ethers using boron tribromide"
                }
            ]
        },
        {
            "step": "18",
            "reactants": [],
            "reagents": [],
            "products": [
                {
                    "smiles": "IC[I]",
                    "product_metadata": {
                        "name": "",
                        "chemical_formula": "CH2I2",
                        "mass": 267.824596064
                    }
                }
            ],
            "conditions": {
                "temperature": "0\u00b0C",
                "pressure": "1 atm",
                "solvent": "No solvent needed",
                "time": "This is a simple addition reaction that would occur rapidly upon mixing the reactants, likely completing within seconds to minutes at most."
            },
            "reactionmetrics": [
                {
                    "scalabilityindex": "",
                    "confidenceestimate": 0.9,
                    "closestliterature": "This is a simple halogen addition reaction to form diiodoethane from ethylene and iodine."
                }
            ]
        },
        {
            "step": "19",
            "reactants": [
                {
                    "smiles": "CCl",
                    "reactant_metadata": {
                        "name": "",
                        "chemical_formula": "CH3Cl",
                        "mass": 49.992327775999996
                    }
                }
            ],
            "reagents": [],
            "products": [
                {
                    "smiles": "CI",
                    "product_metadata": {
                        "name": "",
                        "chemical_formula": "CH3I",
                        "mass": 141.927948096
                    }
                }
            ],
            "conditions": {
                "temperature": "Not applicable",
                "pressure": "Not applicable",
                "solvent": "Not applicable",
                "time": "Not applicable",
                "explanation": "The reaction of CCl to form CI is too simple to meaningfully predict reaction conditions. It likely represents an incomplete or unbalanced reaction rather than a real chemical transformation that would require specific conditions."
            },
            "reactionmetrics": [
                {
                    "scalabilityindex": "8",
                    "confidenceestimate": 0.9,
                    "closestliterature": "None"
                }
            ]
        },
        {
            "step": "20",
            "reactants": [
                {
                    "smiles": "ClCl",
                    "reactant_metadata": {
                        "name": "",
                        "chemical_formula": "Cl2",
                        "mass": 69.93770536
                    }
                }
            ],
            "reagents": [
                {
                    "smiles": "C",
                    "reagent_metadata": {
                        "name": "",
                        "chemical_formula": "CH4",
                        "mass": 16.031300127999998
                    }
                }
            ],
            "products": [
                {
                    "smiles": "CCl",
                    "product_metadata": {
                        "name": "",
                        "chemical_formula": "CH3Cl",
                        "mass": 49.992327775999996
                    }
                }
            ],
            "conditions": "",
            "reactionmetrics": [
                {
                    "scalabilityindex": "8",
                    "confidenceestimate": 0.7,
                    "closestliterature": "None"
                }
            ]
        },
        {
            "step": "21",
            "reactants": [],
            "reagents": [
                {
                    "smiles": "Cl",
                    "reagent_metadata": {
                        "name": "",
                        "chemical_formula": "HCl",
                        "mass": 35.976677712
                    }
                },
                {
                    "smiles": "O=O",
                    "reagent_metadata": {
                        "name": "",
                        "chemical_formula": "O2",
                        "mass": 31.98982924
                    }
                }
            ],
            "products": [
                {
                    "smiles": "ClCl",
                    "product_metadata": {
                        "name": "",
                        "chemical_formula": "Cl2",
                        "mass": 69.93770536
                    }
                }
            ],
            "conditions": {
                "temperature": "0\u00b0C",
                "pressure": "1 atm",
                "solvent": "Not applicable. This is a gas phase reaction.",
                "time": "Rapid reaction, no specific time needed."
            },
            "reactionmetrics": [
                {
                    "scalabilityindex": "8",
                    "confidenceestimate": 0.7,
                    "closestliterature": "Cl2 + O2 -> 2 Cl2O (chlorine monoxide)"
                }
            ]
        }
    ]
}